/*--------------------------------*- C++ -*----------------------------------*\
  =========                 |
  \\      /  F ield         | OpenFOAM: The Open Source CFD Toolbox
   \\    /   O peration     | Website:  https://openfoam.org
    \\  /    A nd           | Version:  11
     \\/     M anipulation  |
\*---------------------------------------------------------------------------*/
FoamFile
{
    format      ascii;
    class       volScalarField;
    location    "1";
    object      compartments;
}
// * * * * * * * * * * * * * * * * * * * * * * * * * * * * * * * * * * * * * //

dimensions      [0 3 0 0 0 0 0];

internalField   nonuniform List<scalar> 
400
(
0
1
2
3
4
5
6
7
8
9
10
11
12
13
14
15
16
17
18
19
20
21
2
3
4
5
6
7
8
9
10
11
12
13
14
15
16
17
22
23
24
24
25
26
4
5
6
7
8
9
10
11
12
13
14
15
27
28
29
29
30
31
32
26
4
5
6
7
8
9
10
11
12
13
14
15
27
33
34
34
35
35
36
37
4
5
6
7
8
9
10
11
12
13
14
15
38
39
40
40
41
41
42
42
4
5
6
7
8
9
10
11
12
13
14
15
43
43
44
44
45
45
45
45
45
5
6
7
8
9
10
11
12
13
14
46
46
46
46
46
47
47
47
47
47
5
6
7
8
9
10
11
12
13
14
48
48
48
48
48
49
49
49
49
49
49
6
7
8
9
10
11
12
13
14
50
50
50
50
50
51
51
51
51
51
51
6
7
8
9
10
11
12
13
52
52
52
52
52
52
53
53
53
53
53
53
6
7
8
9
10
11
12
13
54
54
54
54
54
54
55
55
55
55
55
55
55
7
8
9
10
11
12
13
56
56
56
56
56
56
57
57
57
57
57
57
57
7
8
9
10
11
12
58
58
58
58
58
58
58
59
59
59
59
59
59
59
59
8
9
10
11
12
60
60
60
60
60
60
60
61
61
61
61
61
61
61
61
61
62
10
63
64
64
64
64
64
64
64
64
65
65
65
65
65
65
65
65
66
67
68
69
70
70
70
70
70
70
70
70
71
71
71
71
71
72
73
74
75
76
77
78
79
80
81
82
82
82
82
82
83
83
83
84
85
86
87
88
89
76
77
90
91
92
93
94
95
96
96
96
97
97
98
99
100
101
102
88
89
76
77
90
91
103
104
105
106
107
108
108
109
110
111
112
113
101
102
88
89
76
77
90
91
103
104
114
115
116
117
118
)
;

boundaryField
{
    movingWall
    {
        type            calculated;
        value           uniform 0;
    }
    fixedWalls
    {
        type            calculated;
        value           uniform 0;
    }
    frontAndBack
    {
        type            empty;
    }
}


// ************************************************************************* //
